       N       E                     dE             d eps       ncg     rms          rms(c)
DAV:   1     0.763657992757E+02    0.76366E+02   -0.63110E+03  3072   0.694E+02
DAV:   2    -0.182474625676E+02   -0.94613E+02   -0.93017E+02  5440   0.139E+02
DAV:   3    -0.207901663425E+02   -0.25427E+01   -0.25427E+01  3200   0.337E+01
DAV:   4    -0.208187308302E+02   -0.28564E-01   -0.28564E-01  5920   0.364E+00
DAV:   5    -0.208187442714E+02   -0.13441E-04   -0.13441E-04  4160   0.747E-02
DAV:   6    -0.208187443508E+02   -0.79417E-07   -0.79413E-07  6048   0.515E-03
   1 F= -.20818744E+02 E0= -.20818744E+02  d E =-.432395E-12  mag=     0.0000     0.0000    -0.0000
