Automatically generated mesh
      26
Reciprocal lattice
    0.00000000000000    0.00000000000000    0.00000000000000             1
    0.09090909090909    0.00000000000000    0.00000000000000             3
    0.18181818181818    0.00000000000000    0.00000000000000             3
    0.27272727272727    0.00000000000000    0.00000000000000             3
    0.36363636363636    0.00000000000000    0.00000000000000             3
    0.45454545454545    0.00000000000000    0.00000000000000             3
   -0.45454545454545    0.00000000000000    0.00000000000000             3
   -0.36363636363636    0.00000000000000    0.00000000000000             3
   -0.27272727272727    0.00000000000000    0.00000000000000             3
   -0.18181818181818    0.00000000000000    0.00000000000000             3
   -0.09090909090909    0.00000000000000    0.00000000000000             3
    0.18181818181818    0.09090909090909    0.00000000000000             6
    0.27272727272727    0.09090909090909    0.00000000000000             6
    0.36363636363636    0.09090909090909    0.00000000000000             6
    0.45454545454545    0.09090909090909    0.00000000000000             6
   -0.45454545454545    0.09090909090909    0.00000000000000             6
   -0.36363636363636    0.09090909090909    0.00000000000000             6
   -0.27272727272727    0.09090909090909    0.00000000000000             6
   -0.18181818181818    0.09090909090909    0.00000000000000             6
    0.36363636363636    0.18181818181818    0.00000000000000             6
    0.45454545454545    0.18181818181818    0.00000000000000             6
   -0.45454545454545    0.18181818181818    0.00000000000000             6
   -0.36363636363636    0.18181818181818    0.00000000000000             6
   -0.27272727272727    0.18181818181818    0.00000000000000             6
   -0.45454545454545    0.27272727272727    0.00000000000000             6
   -0.36363636363636    0.27272727272727    0.00000000000000             6
