       N       E                     dE             d eps       ncg     rms          rms(c)
DAV:   1     0.821935280585E+02    0.82194E+02   -0.65719E+03  1664   0.717E+02
DAV:   2    -0.202611506597E+02   -0.10245E+03   -0.10065E+03  2816   0.144E+02
DAV:   3    -0.233686686152E+02   -0.31075E+01   -0.31075E+01  1888   0.359E+01
DAV:   4    -0.234027890808E+02   -0.34120E-01   -0.34120E-01  3200   0.391E+00
DAV:   5    -0.234028000541E+02   -0.10973E-04   -0.10973E-04  2368   0.756E-02    0.238E+01
DAV:   6    -0.222911545687E+02    0.11116E+01   -0.18986E+01  2304   0.162E+01    0.897E+00
DAV:   7    -0.221059351678E+02    0.18522E+00   -0.11281E+01  2432   0.134E+01    0.745E+00
DAV:   8    -0.217985249002E+02    0.30741E+00   -0.26378E+00  2688   0.653E+00    0.933E-01
DAV:   9    -0.217962503541E+02    0.22745E-02   -0.35715E-02  3008   0.134E+00    0.380E-01
DAV:  10    -0.217944014800E+02    0.18489E-02   -0.10646E-02  2944   0.398E-01    0.147E-01
DAV:  11    -0.217942603865E+02    0.14109E-03   -0.19480E-04  2848   0.999E-02    0.985E-02
DAV:  12    -0.217939209201E+02    0.33947E-03   -0.29351E-04  2912   0.665E-02    0.634E-02
DAV:  13    -0.217937235830E+02    0.19734E-03   -0.24910E-04  2912   0.620E-02    0.211E-02
DAV:  14    -0.217937174681E+02    0.61149E-05   -0.42821E-05  2304   0.273E-02    0.126E-02
DAV:  15    -0.217937604812E+02   -0.43013E-04   -0.24000E-05  2368   0.174E-02    0.101E-02
DAV:  16    -0.217938194467E+02   -0.58966E-04   -0.21861E-06  2368   0.545E-03    0.588E-03
DAV:  17    -0.217939222672E+02   -0.10282E-03   -0.29126E-06  2464   0.633E-03    0.336E-03
DAV:  18    -0.217939740267E+02   -0.51760E-04   -0.14463E-06  2496   0.365E-03    0.218E-03
DAV:  19    -0.217939880955E+02   -0.14069E-04   -0.61133E-07  2464   0.229E-03    0.126E-03
DAV:  20    -0.217939896407E+02   -0.15452E-05   -0.63925E-08  2656   0.762E-04    0.320E-04
DAV:  21    -0.217939898152E+02   -0.17454E-06   -0.46858E-09  2528   0.218E-04
   1 F= -.21793990E+02 E0= -.21793990E+02  d E =-.279512E-13  mag=     0.0000     0.0000    -0.0000
